                     Standard orientation:
---------------------------------------------------------------------
Center     Atomic      Atomic             Coordinates (Angstroms)
Number     Number       Type             X           Y           Z
---------------------------------------------------------------------
  1          6           0        0.000000    0.000000    0.770000
  2          1           0       -0.192230    0.990322    1.126666
  3          1           0        0.953759   -0.328685    1.126666
  4          1           0       -0.761529   -0.661637    1.126666
  5          6           0        0.000000    0.000000   -0.770000
  6          1           0        0.761529   -0.661637   -1.126666
  7          1           0       -0.953759   -0.328685   -1.126666
  8          1           0        0.192230    0.990322   -1.126666
---------------------------------------------------------------------

The electronic state is 1-A1.
Alpha  occ. eigenvalues --  -11.20256 -11.20200  -1.02082  -0.84525  -0.60573
Alpha  occ. eigenvalues --   -0.60573  -0.49559  -0.49276  -0.49276
Alpha virt. eigenvalues --    0.24325   0.29341   0.29341   0.30955   0.38746
Alpha virt. eigenvalues --    0.38746   0.40856   0.70723   0.73437   0.73437
Alpha virt. eigenvalues --    0.86201   0.86201   0.94240   1.15879   1.15879

Normal termination of Gaussian 09 at Wed Sep  2 11:11:41 2020.
