 Q-Chem 5.0, Q-Chem, Inc., Pleasanton, CA (2017)
 Q-Chem 5.0.2 for Intel X86 EM64T Linux

User input:
--------------------------------------------------------------
$molecule
0 1
O        0.8346666151   -1.2014813547    0.3352796907
H        1.5879941404   -1.8211334312    0.4898467984
H        1.1913768694   -0.3424825582    0.7011827899
O       -1.1792708795   -0.8846724843    2.2929798448
H       -0.5087531765   -1.2179252119    1.6430826716
H       -1.0801573147    0.0914497525    2.1506274567
O        1.9926602591    0.8951601450    1.1113592933
H        1.8361937390    1.7102648073    0.5753661545
H        2.9600071026    0.9597414983    1.2992910394
O        0.4139743437    0.9683627647   -1.8499590312
H        1.3208067502    0.5949139699   -1.7233678674
H       -0.0151173083    0.2181741855   -2.3267805864
O       -0.8732160438   -2.1461073265   -1.6508262410
H       -0.3071669055   -1.8458673291   -0.8921422345
H       -0.2157622826   -2.1064648745   -2.3937832721
O       -1.4837158130    2.3007584932   -0.2555972885
H       -0.7948192739    1.8499359580   -0.8065292974
H       -2.2520608298    1.6960129962   -0.4131599298
$end

$rem
jobtype               force
exchange              hf
basis                 sto-3g
symmetry              off
sym_ignore            true
scf_guess             read
$end

--------------------------------------------------------------

             Standard Nuclear Orientation (Angstroms)
    I     Atom           X                Y                Z
 ----------------------------------------------------------------
    1      O       0.8346666151    -1.2014813547     0.3352796907
    2      H       1.5879941404    -1.8211334312     0.4898467984
    3      H       1.1913768694    -0.3424825582     0.7011827899
    4      O      -1.1792708795    -0.8846724843     2.2929798448
    5      H      -0.5087531765    -1.2179252119     1.6430826716
    6      H      -1.0801573147     0.0914497525     2.1506274567
    7      O       1.9926602591     0.8951601450     1.1113592933
    8      H       1.8361937390     1.7102648073     0.5753661545
    9      H       2.9600071026     0.9597414983     1.2992910394
   10      O       0.4139743437     0.9683627647    -1.8499590312
   11      H       1.3208067502     0.5949139699    -1.7233678674
   12      H      -0.0151173083     0.2181741855    -2.3267805864
   13      O      -0.8732160438    -2.1461073265    -1.6508262410
   14      H      -0.3071669055    -1.8458673291    -0.8921422345
   15      H      -0.2157622826    -2.1064648745    -2.3937832721
   16      O      -1.4837158130     2.3007584932    -0.2555972885
   17      H      -0.7948192739     1.8499359580    -0.8065292974
   18      H      -2.2520608298     1.6960129962    -0.4131599298
 ----------------------------------------------------------------

   11    -449.8284253825      4.68E-09 Convergence criterion met
 Total energy in the final basis set = -449.82842538

                    Orbital Energies (a.u.)
 --------------------------------------------------------------

 Alpha MOs
 -- Occupied --
-20.338 -20.292 -20.237 -20.210 -20.201 -20.195  -1.339  -1.298
 -1.268  -1.230  -1.223  -1.214  -0.675  -0.653  -0.633  -0.585
 -0.580  -0.561  -0.528  -0.496  -0.486  -0.453  -0.440  -0.436
 -0.408  -0.401  -0.378  -0.365  -0.358  -0.350

          Ground-State Mulliken Net Atomic Charges

     Atom                 Charge (a.u.)
  ----------------------------------------
      1 O                    -0.412452
      2 H                     0.157307
      3 H                     0.244815
      4 O                    -0.365398
      5 H                     0.186371
      6 H                     0.147227
      7 O                    -0.338784
      8 H                     0.214634
      9 H                     0.206043
     10 O                    -0.340027
     11 H                     0.175998
     12 H                     0.192770
     13 O                    -0.367621
     14 H                     0.201571
     15 H                     0.129469
     16 O                    -0.372697
     17 H                     0.190678
     18 H                     0.150096
  ----------------------------------------
  Sum of atomic charges =    -0.000000

                    Cartesian Multipole Moments
 -----------------------------------------------------------------
    Charge (ESU x 10^10)
                -0.0000
    Dipole Moment (Debye)
         X       7.4513      Y       0.8447      Z      -1.9787
       Tot       7.7557
    Quadrupole Moments (Debye-Ang)
        XX     -25.7646     XY      -0.4003     YY     -43.7049
        XZ       3.5158     YZ       3.1768     ZZ     -37.2983

 Total job time:  0.23s(wall), 0.23s(cpu)
        *  Thank you very much for using Q-Chem.  Have a nice day.  *
